ITEM: TIMESTEP
0
ITEM: NUMBER OF ATOMS
300
ITEM: BOX BOUNDS pp pp pp
-3.0000000000000000e+01 3.0000000000000000e+01
-3.0000000000000000e+01 3.0000000000000000e+01
-3.0000000000000000e+01 3.0000000000000000e+01
ITEM: ATOMS id type xs ys zs
230 2 0.651917 0.0727799 0.00966071
13 1 0.24669 0.171743 0.00172037
255 2 0.458112 0.593626 0.0351576
253 1 0.469233 0.582321 0.0365799
77 2 0.0791796 0.695683 0.0358835
232 1 0.237754 0.692849 0.0274984
234 2 0.239108 0.703236 0.0154788
158 2 0.318874 0.729298 0.0353318
157 1 0.308869 0.739961 0.0287323
159 2 0.312601 0.739591 0.0132935
89 2 0.263958 0.787591 0.032969
88 1 0.278584 0.792522 0.028936
90 2 0.287647 0.779349 0.0304408
280 1 0.405022 0.895596 0.0285275
281 2 0.391431 0.891675 0.0359061
276 2 0.761176 0.936889 0.00448549
226 1 0.399673 0.198671 0.0527982
227 2 0.412463 0.207587 0.049445
228 2 0.387292 0.208427 0.0503547
25 1 0.122947 0.529903 0.051644
26 2 0.135105 0.52202 0.058311
252 2 0.514994 0.532713 0.0725239
27 2 0.120391 0.542265 0.0613932
254 2 0.481923 0.589938 0.042507
76 1 0.072708 0.701097 0.0494255
78 2 0.0841864 0.699239 0.0603516
233 2 0.236551 0.702168 0.0405619
124 1 0.253483 0.724072 0.0630911
125 2 0.266887 0.715317 0.0619849
126 2 0.257325 0.735115 0.0739997
282 2 0.416257 0.894043 0.0397471
291 2 0.674379 0.917636 0.0644315
289 1 0.681383 0.93134 0.068587
4 1 0.943783 0.927963 0.0529508
5 2 0.946139 0.940325 0.0431713
6 2 0.958321 0.924361 0.0584233
250 1 0.514377 0.532942 0.0885024
251 2 0.52688 0.541729 0.092913
286 1 0.13164 0.912738 0.113961
288 2 0.137122 0.92367 0.103708
290 2 0.672666 0.936734 0.080818
36 2 0.452443 0.106557 0.140834
34 1 0.463275 0.0976069 0.148359
35 2 0.46836 0.0873385 0.137277
38 2 0.566987 0.097552 0.147949
39 2 0.543041 0.10355 0.152848
37 1 0.55235 0.0913858 0.148386
82 1 0.67035 0.335121 0.148369
84 2 0.680532 0.347246 0.150214
164 2 0.422911 0.623409 0.152852
94 1 0.343349 0.699807 0.153716
287 2 0.143664 0.902364 0.115483
83 2 0.666732 0.330599 0.163229
163 1 0.413048 0.627847 0.164605
165 2 0.407358 0.641979 0.159947
96 2 0.34001 0.686075 0.161107
95 2 0.342095 0.710796 0.165182
174 2 0.685823 0.894664 0.176072
172 1 0.694226 0.886403 0.186779
173 2 0.709409 0.889251 0.182856
267 2 0.105424 0.0534151 0.228525
41 2 0.43943 0.231024 0.224048
187 1 0.720467 0.817293 0.192768
188 2 0.727152 0.815162 0.207051
189 2 0.708564 0.827592 0.195472
208 1 0.0972 0.87508 0.20619
209 2 0.0837351 0.867926 0.20148
210 2 0.0993247 0.886852 0.195624
265 1 0.117579 0.0440517 0.232833
266 2 0.130051 0.0539972 0.233679
134 2 0.148646 0.106612 0.259304
133 1 0.157031 0.105121 0.245825
135 2 0.168631 0.115941 0.24726
42 2 0.430571 0.226238 0.247145
40 1 0.425862 0.229222 0.232233
169 1 0.746474 0.308451 0.254968
170 2 0.745222 0.31448 0.240264
171 2 0.731961 0.310308 0.261335
151 1 0.524299 0.573761 0.236897
152 2 0.526065 0.572995 0.252735
153 2 0.511145 0.56523 0.233932
241 1 0.403014 0.816541 0.268415
242 2 0.409061 0.819618 0.253994
217 1 0.0263895 0.945989 0.246059
218 2 0.0242313 0.961486 0.249163
219 2 0.0422225 0.944022 0.246517
132 2 0.0708222 0.12135 0.292266
130 1 0.0866006 0.119537 0.290428
131 2 0.0924318 0.134312 0.291268
177 2 0.570105 0.191017 0.278317
175 1 0.57008 0.205547 0.271757
176 2 0.561077 0.214339 0.281538
103 1 0.466669 0.306461 0.290195
104 2 0.476131 0.293637 0.289926
105 2 0.465337 0.310151 0.305665
46 1 0.583715 0.394238 0.281193
47 2 0.578324 0.408946 0.284191
48 2 0.58937 0.389135 0.295186
63 2 0.801605 0.535812 0.283155
61 1 0.7871 0.540382 0.287964
62 2 0.783556 0.552853 0.278663
243 2 0.41558 0.81179 0.277045
121 1 0.00725946 0.13687 0.322273
122 2 0.0121901 0.140592 0.336965
123 2 0.991388 0.13595 0.323566
193 1 0.500079 0.841285 0.317161
194 2 0.515732 0.843892 0.318712
139 1 0.329748 0.878845 0.345804
141 2 0.316197 0.884028 0.339233
195 2 0.493341 0.851541 0.327331
140 2 0.341087 0.887884 0.339198
85 1 0.765034 0.972636 0.329154
87 2 0.75185 0.981598 0.328542
86 2 0.776683 0.982955 0.332666
196 1 0.285121 0.0370162 0.363177
197 2 0.281559 0.0444837 0.349535
198 2 0.275418 0.0435821 0.374006
211 1 0.0927141 0.241233 0.376633
212 2 0.10728 0.246868 0.37339
213 2 0.0848754 0.25373 0.382717
19 1 0.59822 0.499468 0.378576
20 2 0.60733 0.503269 0.366068
7 1 0.923087 0.88096 0.357896
9 2 0.910875 0.89117 0.358692
8 2 0.935363 0.88982 0.35287
49 1 0.889463 0.17197 0.40205
50 2 0.897319 0.185495 0.399655
51 2 0.893567 0.167594 0.416851
264 2 0.586119 0.203945 0.421953
59 2 0.208735 0.304566 0.411526
21 2 0.608471 0.493856 0.3894
148 1 0.881426 0.642832 0.421452
150 2 0.869783 0.63903 0.411238
238 1 0.460259 0.821699 0.414603
240 2 0.447734 0.819573 0.404982
239 2 0.459512 0.837042 0.418784
72 2 0.0378064 0.0166049 0.430252
70 1 0.0468086 0.0115826 0.442431
71 2 0.0549956 0.0244962 0.446964
262 1 0.590482 0.215346 0.432209
263 2 0.583592 0.211156 0.445968
60 2 0.216998 0.304823 0.435337
271 1 0.413382 0.307309 0.455024
58 1 0.207849 0.312909 0.42507
272 2 0.419754 0.321091 0.459933
273 2 0.397856 0.310498 0.453305
149 2 0.87536 0.654759 0.430128
183 2 0.881029 0.174643 0.481391
181 1 0.895405 0.178495 0.475715
182 2 0.901225 0.188569 0.48659
204 2 0.14687 0.720864 0.469459
202 1 0.158502 0.710315 0.47224
203 2 0.171964 0.718822 0.471168
167 2 0.528128 0.878475 0.463111
166 1 0.528429 0.89365 0.467998
168 2 0.541746 0.894756 0.476709
137 2 0.73207 0.304198 0.521262
136 1 0.723606 0.316836 0.516475
138 2 0.717965 0.323169 0.529971
221 2 0.804284 0.383791 0.528144
220 1 0.800594 0.387943 0.543096
222 2 0.7923 0.401474 0.541531
127 1 0.934505 0.60927 0.556712
128 2 0.947632 0.60007 0.555666
129 2 0.928036 0.608126 0.54206
11 2 0.107284 0.689853 0.571405
178 1 0.736834 0.0655065 0.600473
180 2 0.734859 0.0499674 0.597461
225 2 0.949978 0.605723 0.61347
10 1 0.111701 0.693717 0.586251
12 2 0.0990592 0.701279 0.592361
260 2 0.77833 0.709117 0.612719
179 2 0.733523 0.0670229 0.616001
64 1 0.357983 0.297148 0.644992
65 2 0.364591 0.285696 0.636072
66 2 0.369192 0.308464 0.645944
31 1 0.942072 0.328589 0.624244
32 2 0.955075 0.337762 0.623181
33 2 0.930008 0.338957 0.625504
223 1 0.959568 0.597981 0.623649
224 2 0.96269 0.608662 0.635053
259 1 0.777565 0.717924 0.625993
261 2 0.790223 0.713355 0.63456
28 1 0.56289 0.177459 0.66265
29 2 0.576286 0.169912 0.658385
30 2 0.561602 0.174736 0.678297
205 1 0.174544 0.408479 0.681251
206 2 0.170924 0.418833 0.669655
207 2 0.160705 0.405912 0.688791
73 1 0.639503 0.452217 0.672935
74 2 0.651522 0.459992 0.680098
75 2 0.627163 0.462224 0.6744
55 1 0.508887 0.711537 0.686381
56 2 0.522565 0.719184 0.688969
97 1 0.0225119 0.894213 0.662911
98 2 0.0379714 0.897659 0.660992
99 2 0.0163416 0.907239 0.669756
43 1 0.578768 0.0736399 0.727437
45 2 0.563405 0.0772774 0.725278
22 1 0.604535 0.322501 0.723699
23 2 0.596393 0.332537 0.714333
67 1 0.135675 0.443789 0.722263
68 2 0.130676 0.453977 0.711069
115 1 0.668516 0.493736 0.70538
116 2 0.684198 0.495641 0.708406
244 1 0.213157 0.523029 0.695012
245 2 0.222487 0.525263 0.707756
246 2 0.203968 0.536015 0.694461
18 2 0.296246 0.533003 0.71012
16 1 0.309568 0.527006 0.716511
17 2 0.320651 0.529439 0.705239
117 2 0.661509 0.504564 0.714676
277 1 0.0353625 0.716877 0.72986
278 2 0.0475862 0.727051 0.728616
57 2 0.504655 0.706295 0.700831
91 1 0.448248 0.781965 0.724958
93 2 0.440411 0.79584 0.725326
92 2 0.462451 0.785552 0.718653
147 2 0.916059 0.0352271 0.768535
146 2 0.928697 0.0133943 0.768003
145 1 0.930826 0.0291867 0.768727
258 2 0.180207 0.0757818 0.74832
256 1 0.195946 0.0782043 0.749322
257 2 0.19813 0.0928552 0.743404
44 2 0.581946 0.0783362 0.742342
114 2 0.895727 0.21481 0.759555
113 2 0.908318 0.236169 0.764166
24 2 0.595497 0.32101 0.736746
69 2 0.145488 0.45237 0.731343
235 1 0.41241 0.447832 0.746345
236 2 0.417285 0.447051 0.762018
237 2 0.403139 0.435063 0.74487
285 2 0.326861 0.489739 0.762424
284 2 0.351426 0.485925 0.75903
199 1 0.535513 0.686026 0.739147
201 2 0.530421 0.677489 0.751518
200 2 0.548065 0.677818 0.733799
279 2 0.0235446 0.725616 0.736056
112 1 0.900643 0.22424 0.771457
295 1 0.415027 0.443546 0.787708
297 2 0.403357 0.453158 0.793117
296 2 0.420646 0.437085 0.801127
283 1 0.339614 0.483639 0.769586
154 1 0.56577 0.639687 0.794405
155 2 0.577436 0.649914 0.798452
298 1 0.564084 0.938009 0.77134
299 2 0.558644 0.951674 0.77752
300 2 0.557596 0.926623 0.780425
216 2 0.842514 0.3407 0.839539
156 2 0.560117 0.634906 0.808675
120 2 0.450508 0.716986 0.838981
292 1 0.331344 0.735999 0.818822
293 2 0.34304 0.745782 0.814173
294 2 0.317933 0.743798 0.815129
247 1 0.0654169 0.0393174 0.849536
249 2 0.0525063 0.0486927 0.849641
248 2 0.077699 0.0494892 0.849853
102 2 0.877029 0.225439 0.875845
214 1 0.844945 0.340679 0.85531
215 2 0.84845 0.355827 0.858847
106 1 0.818694 0.630288 0.884169
119 2 0.456917 0.719429 0.86322
118 1 0.462251 0.722102 0.848471
161 2 0.872142 0.799134 0.883407
100 1 0.882765 0.21426 0.885682
101 2 0.898458 0.21703 0.886094
190 1 0.00863391 0.496049 0.893194
192 2 0.00715162 0.498877 0.90883
191 2 0.994255 0.499361 0.88714
107 2 0.827094 0.641369 0.891967
108 2 0.810738 0.622556 0.895626
81 2 0.777917 0.747308 0.922753
160 1 0.860735 0.790425 0.890397
162 2 0.848458 0.800459 0.892015
109 1 0.525899 0.62047 0.934989
110 2 0.530034 0.631513 0.924239
111 2 0.509964 0.620207 0.93453
80 2 0.793984 0.729879 0.931116
79 1 0.77885 0.734707 0.932479
229 1 0.648931 0.0609865 0.99934
231 2 0.632951 0.0598311 0.999434
185 2 0.678339 0.0563998 0.973849
184 1 0.692498 0.0569769 0.966293
186 2 0.702167 0.0482925 0.975467
142 1 0.276428 0.110228 0.986698
144 2 0.288484 0.104815 0.995559
143 2 0.269776 0.121762 0.995627
15 2 0.231849 0.171817 0.995816
14 2 0.253813 0.184032 0.99448
1 1 0.916297 0.331673 0.980738
2 2 0.908911 0.343061 0.972395
3 2 0.90695 0.329316 0.993411
268 1 0.686567 0.75924 0.980998
270 2 0.689198 0.765898 0.995229
269 2 0.700843 0.753772 0.976425
52 1 0.629608 0.88505 0.979461
53 2 0.639948 0.890751 0.968739
54 2 0.637675 0.885192 0.9932
274 1 0.759401 0.928841 0.990817
275 2 0.755423 0.940002 0.980138
ITEM: TIMESTEP
100
ITEM: NUMBER OF ATOMS
300
ITEM: BOX BOUNDS pp pp pp
-3.0000000000000000e+01 3.0000000000000000e+01
-3.0000000000000000e+01 3.0000000000000000e+01
-3.0000000000000000e+01 3.0000000000000000e+01
ITEM: ATOMS id type xs ys zs
230 2 0.634696 0.0788988 0.00758862
13 1 0.251909 0.175842 0.999215
255 2 0.45805 0.599258 0.035857
253 1 0.470852 0.589837 0.0317787
77 2 0.0696799 0.715379 0.0538742
232 1 0.237709 0.693312 0.0284554
234 2 0.230997 0.684891 0.0408425
158 2 0.29565 0.717561 0.0245714
157 1 0.296322 0.733886 0.0256017
159 2 0.308082 0.738621 0.0159401
89 2 0.273547 0.768295 0.0146113
88 1 0.277862 0.783204 0.0181517
90 2 0.27787 0.782718 0.0336528
280 1 0.398418 0.894825 0.0203588
281 2 0.395753 0.879832 0.0188588
276 2 0.753291 0.926903 0.0131575
226 1 0.393811 0.206996 0.0451758
227 2 0.379435 0.210008 0.038201
228 2 0.391901 0.204655 0.0605834
25 1 0.126517 0.521101 0.0561569
26 2 0.128539 0.514688 0.0416897
252 2 0.501905 0.536437 0.100552
27 2 0.139974 0.528459 0.058851
254 2 0.482447 0.598143 0.0370054
76 1 0.0641604 0.700355 0.0563338
78 2 0.0571343 0.697001 0.0426297
233 2 0.247555 0.704507 0.0356576
124 1 0.260015 0.726663 0.0532726
125 2 0.27223 0.733188 0.0457535
126 2 0.255893 0.736435 0.0645024
282 2 0.41027 0.896106 0.0311172
291 2 0.665568 0.918806 0.0596265
289 1 0.676462 0.930771 0.0620365
4 1 0.947513 0.926174 0.0483018
5 2 0.950574 0.910697 0.0498116
6 2 0.956286 0.931279 0.0367278
250 1 0.517192 0.538046 0.0965301
251 2 0.520018 0.525007 0.0886495
286 1 0.134877 0.912189 0.113754
288 2 0.141792 0.901705 0.122926
290 2 0.684455 0.925878 0.0740413
36 2 0.457176 0.0868908 0.129488
34 1 0.45196 0.0895813 0.145075
35 2 0.464828 0.0931265 0.153318
38 2 0.552698 0.0880325 0.144386
39 2 0.571383 0.104984 0.146365
37 1 0.559132 0.0984741 0.154529
82 1 0.663095 0.341298 0.145407
84 2 0.658341 0.325933 0.147023
164 2 0.424613 0.632141 0.182373
94 1 0.337062 0.698533 0.159239
287 2 0.121234 0.915054 0.121925
83 2 0.66324 0.344041 0.129584
163 1 0.417533 0.622071 0.171792
165 2 0.407301 0.632558 0.165562
96 2 0.335463 0.705519 0.145303
95 2 0.326591 0.686658 0.158283
174 2 0.709479 0.904426 0.184286
172 1 0.701721 0.890025 0.185806
173 2 0.709192 0.882156 0.174327
267 2 0.132125 0.057117 0.212797
41 2 0.413911 0.213027 0.223011
187 1 0.729145 0.813141 0.19686
188 2 0.731939 0.802276 0.207661
189 2 0.717498 0.820965 0.204302
208 1 0.0894218 0.878689 0.211859
209 2 0.0901926 0.870205 0.224486
210 2 0.0755461 0.88648 0.212648
265 1 0.127311 0.0480762 0.225013
266 2 0.138599 0.0372938 0.226301
134 2 0.133168 0.108659 0.247854
133 1 0.148269 0.112521 0.243434
135 2 0.148005 0.128022 0.244613
42 2 0.421735 0.234026 0.236769
40 1 0.424769 0.224899 0.223659
169 1 0.742133 0.303334 0.259788
170 2 0.757622 0.301747 0.264327
171 2 0.735945 0.309042 0.273178
151 1 0.531502 0.574882 0.228441
152 2 0.524077 0.561758 0.223244
153 2 0.527297 0.586445 0.217453
241 1 0.403438 0.821031 0.275958
242 2 0.416451 0.828095 0.283061
217 1 0.0270222 0.938919 0.244483
218 2 0.0389468 0.934642 0.253855
219 2 0.0286508 0.954449 0.244653
132 2 0.089482 0.101671 0.286002
130 1 0.084832 0.117156 0.286266
131 2 0.0690023 0.115759 0.289423
177 2 0.553839 0.211734 0.271861
175 1 0.569856 0.211251 0.268887
176 2 0.568875 0.206101 0.253842
103 1 0.464025 0.304845 0.294211
104 2 0.461956 0.320171 0.291074
105 2 0.473408 0.299489 0.281822
46 1 0.583711 0.392238 0.281606
47 2 0.597118 0.40121 0.279988
48 2 0.589725 0.38117 0.292253
63 2 0.806015 0.551696 0.293574
61 1 0.794482 0.543645 0.286495
62 2 0.798696 0.542857 0.270873
243 2 0.406522 0.806258 0.269952
121 1 0.0161585 0.136938 0.318655
122 2 0.000873323 0.131147 0.319463
123 2 0.0139972 0.150842 0.327016
193 1 0.508884 0.842401 0.318228
194 2 0.511118 0.828939 0.32725
139 1 0.329086 0.878853 0.35707
141 2 0.32051 0.884145 0.345082
195 2 0.517565 0.852968 0.32498
140 2 0.337012 0.892139 0.362121
85 1 0.759954 0.981972 0.325403
87 2 0.76982 0.990406 0.333674
86 2 0.764047 0.966453 0.32834
196 1 0.291153 0.0417659 0.372837
197 2 0.291287 0.0359137 0.358197
198 2 0.290966 0.0578539 0.372632
211 1 0.0830851 0.240707 0.386979
212 2 0.0850515 0.247969 0.372976
213 2 0.0935456 0.248534 0.395901
19 1 0.593948 0.497466 0.371389
20 2 0.606165 0.496403 0.361576
7 1 0.921046 0.87893 0.36368
9 2 0.912859 0.891748 0.35793
8 2 0.914729 0.868251 0.352679
49 1 0.898454 0.166859 0.411778
50 2 0.900924 0.1826 0.410516
51 2 0.89251 0.165954 0.426745
264 2 0.574996 0.210375 0.434406
59 2 0.194229 0.31843 0.433891
21 2 0.60207 0.497189 0.386007
148 1 0.878741 0.637702 0.414013
150 2 0.875741 0.62351 0.421555
238 1 0.465374 0.816753 0.420196
240 2 0.478229 0.808794 0.413272
239 2 0.455152 0.805692 0.424681
72 2 0.0475529 0.00311417 0.430012
70 1 0.0507946 0.0173445 0.435728
71 2 0.0640731 0.0227312 0.42934
262 1 0.588752 0.219054 0.43315
263 2 0.585733 0.229019 0.421598
60 2 0.217966 0.324935 0.430792
271 1 0.411118 0.306091 0.450446
58 1 0.206227 0.314435 0.424468
272 2 0.40258 0.294511 0.457916
273 2 0.421885 0.298807 0.442288
149 2 0.868029 0.638046 0.402548
183 2 0.888982 0.166618 0.47763
181 1 0.889136 0.179457 0.468686
182 2 0.904323 0.186409 0.469872
204 2 0.151299 0.709317 0.463143
202 1 0.157624 0.704058 0.477072
203 2 0.160067 0.688829 0.473768
167 2 0.536109 0.904549 0.465354
166 1 0.53956 0.8893 0.468426
168 2 0.525496 0.880998 0.467448
137 2 0.725907 0.309983 0.497312
136 1 0.719627 0.316867 0.511309
138 2 0.705887 0.30984 0.513656
221 2 0.791613 0.390535 0.544129
220 1 0.801678 0.385453 0.532748
222 2 0.792054 0.379118 0.521675
127 1 0.941988 0.614247 0.557657
128 2 0.950167 0.609637 0.545208
129 2 0.928328 0.621009 0.551254
11 2 0.115806 0.685727 0.59131
178 1 0.739104 0.0685266 0.606802
180 2 0.749606 0.0805737 0.607669
225 2 0.962336 0.606349 0.60536
10 1 0.11712 0.696247 0.580222
12 2 0.131253 0.694606 0.573806
260 2 0.787533 0.707189 0.62322
179 2 0.734838 0.0670753 0.59175
64 1 0.357612 0.302388 0.635452
65 2 0.354274 0.307898 0.649779
66 2 0.34694 0.310847 0.626846
31 1 0.945382 0.328016 0.620715
32 2 0.950735 0.340023 0.629148
33 2 0.936396 0.318438 0.630612
223 1 0.955705 0.600898 0.618805
224 2 0.941409 0.606785 0.618668
259 1 0.773553 0.711837 0.629205
261 2 0.767115 0.697364 0.632703
28 1 0.563995 0.184055 0.672988
29 2 0.579463 0.181349 0.675102
30 2 0.560148 0.176032 0.65988
205 1 0.170579 0.416598 0.678349
206 2 0.168339 0.402598 0.686012
207 2 0.159914 0.426529 0.68424
73 1 0.650312 0.448601 0.675339
74 2 0.637378 0.456352 0.681027
75 2 0.662592 0.455352 0.683442
55 1 0.501378 0.701125 0.684761
56 2 0.513794 0.706533 0.677298
97 1 0.0234117 0.896209 0.655893
98 2 0.0105012 0.890042 0.661663
99 2 0.0320992 0.89948 0.669078
43 1 0.574172 0.0780385 0.722732
45 2 0.581859 0.0666205 0.729903
22 1 0.603075 0.312544 0.714787
23 2 0.612032 0.305466 0.703698
67 1 0.141903 0.451228 0.718138
68 2 0.126772 0.455534 0.716472
115 1 0.671063 0.489632 0.70792
116 2 0.686469 0.495433 0.705421
244 1 0.213335 0.529491 0.687248
245 2 0.214665 0.544733 0.684089
246 2 0.224784 0.523183 0.678118
18 2 0.29399 0.522353 0.719444
16 1 0.309109 0.525324 0.722134
17 2 0.315753 0.52791 0.707503
117 2 0.664006 0.498281 0.718412
277 1 0.0331397 0.710654 0.727519
278 2 0.0446406 0.71949 0.734964
57 2 0.506436 0.700903 0.699914
91 1 0.447137 0.785275 0.728449
93 2 0.43357 0.779716 0.721158
92 2 0.454765 0.771292 0.73096
147 2 0.937043 0.0270614 0.788706
146 2 0.920191 0.0296014 0.769672
145 1 0.931844 0.0206656 0.775139
258 2 0.208728 0.0885847 0.753474
256 1 0.203353 0.0742827 0.75564
257 2 0.213563 0.0650241 0.747641
44 2 0.569197 0.0858367 0.736443
114 2 0.890052 0.225769 0.779872
113 2 0.914344 0.23069 0.784423
24 2 0.590357 0.303317 0.716945
69 2 0.145054 0.451613 0.734134
235 1 0.409939 0.444434 0.74988
236 2 0.410157 0.442092 0.766206
237 2 0.421644 0.435881 0.744806
285 2 0.334782 0.48386 0.749003
284 2 0.353186 0.489069 0.763551
199 1 0.546416 0.692035 0.744036
201 2 0.542718 0.677652 0.750292
200 2 0.562124 0.694497 0.747497
279 2 0.0312151 0.696982 0.736719
112 1 0.904624 0.228245 0.772215
295 1 0.415086 0.446686 0.790991
297 2 0.406995 0.447273 0.8046
296 2 0.428668 0.454832 0.794517
283 1 0.340553 0.479902 0.762816
154 1 0.562647 0.633776 0.797554
155 2 0.570725 0.64501 0.806235
298 1 0.553811 0.942713 0.778966
299 2 0.563472 0.936955 0.767018
300 2 0.540702 0.933584 0.779023
216 2 0.844022 0.324839 0.870676
156 2 0.559372 0.620723 0.807019
120 2 0.471776 0.727083 0.839051
292 1 0.3282 0.733502 0.825875
293 2 0.341845 0.740319 0.825672
294 2 0.317801 0.745847 0.825681
247 1 0.0680475 0.0460183 0.843477
249 2 0.0802009 0.0466974 0.853252
248 2 0.0659036 0.0308882 0.840383
102 2 0.895706 0.200443 0.890576
214 1 0.851047 0.336144 0.861012
215 2 0.842674 0.349556 0.862876
106 1 0.815685 0.637601 0.876078
119 2 0.446263 0.727274 0.842869
118 1 0.459894 0.722867 0.849592
161 2 0.870356 0.782066 0.902942
100 1 0.882861 0.207855 0.885132
101 2 0.885759 0.209293 0.870082
190 1 0.00283073 0.495348 0.900747
192 2 -0.00154328 0.491696 0.885738
191 2 0.0149122 0.485402 0.904746
107 2 0.802918 0.636278 0.885679
108 2 0.81451 0.652465 0.870996
81 2 0.764318 0.73542 0.930711
160 1 0.854888 0.787021 0.901124
162 2 0.850298 0.784509 0.915885
109 1 0.527532 0.62908 0.928315
110 2 0.523342 0.639301 0.939449
111 2 0.536683 0.617788 0.935456
80 2 0.788563 0.740825 0.926992
79 1 0.778099 0.73803 0.938122
229 1 0.645906 0.0701803 0.000667837
231 2 0.637591 0.0586093 0.99262
185 2 0.678938 0.0631578 0.987204
184 1 0.691107 0.0605475 0.978204
186 2 0.701551 0.0507355 0.98697
142 1 0.273873 0.123936 0.990507
144 2 0.275317 0.115566 0.977022
143 2 0.263171 0.134917 0.98573
15 2 0.266353 0.179337 0.00579601
14 2 0.243039 0.169429 0.0106522
1 1 0.906194 0.334355 0.989158
2 2 0.921685 0.33093 0.99186
3 2 0.905313 0.348851 0.98232
268 1 0.695225 0.763033 0.973072
270 2 0.704735 0.750242 0.976572
269 2 0.706396 0.774021 0.968847
52 1 0.624029 0.879347 0.976124
53 2 0.607923 0.878125 0.977522
54 2 0.626501 0.878648 0.959874
274 1 0.761757 0.923723 1.00061
275 2 0.751372 0.927213 0.989372
ITEM: TIMESTEP
200
ITEM: NUMBER OF ATOMS
300
ITEM: BOX BOUNDS pp pp pp
-3.0000000000000000e+01 3.0000000000000000e+01
-3.0000000000000000e+01 3.0000000000000000e+01
-3.0000000000000000e+01 3.0000000000000000e+01
ITEM: ATOMS id type xs ys zs
230 2 0.636996 0.0935803 0.998965
13 1 0.257632 0.182199 0.00021429
255 2 0.458624 0.593412 0.0300776
253 1 0.472865 0.598917 0.0278984
77 2 0.0589152 0.691121 0.0719278
232 1 0.240033 0.692785 0.0295934
234 2 0.240199 0.688091 0.0453211
158 2 0.300012 0.732989 0.999506
157 1 0.29176 0.729866 0.0125543
159 2 0.286835 0.714693 0.00922217
89 2 0.28038 0.762645 0.0186254
88 1 0.278465 0.773668 0.00743412
90 2 0.263368 0.772607 0.00288439
280 1 0.392185 0.893488 0.0118119
281 2 0.399596 0.881717 0.00435236
276 2 0.750967 0.920431 0.0204312
226 1 0.385644 0.215056 0.0391606
227 2 0.383278 0.200229 0.0432176
228 2 0.398156 0.214718 0.0291759
25 1 0.131367 0.511772 0.0594456
26 2 0.120962 0.522075 0.0539744
252 2 0.524964 0.548988 0.115364
27 2 0.140291 0.508222 0.0469151
254 2 0.48207 0.585865 0.0269335
76 1 0.0547795 0.701317 0.0605376
78 2 0.0449909 0.711912 0.0677439
233 2 0.242886 0.708843 0.0327031
124 1 0.255077 0.728207 0.0541991
125 2 0.268376 0.734068 0.0493865
126 2 0.255532 0.730879 0.0695504
282 2 0.398996 0.894473 0.025612
291 2 0.662001 0.931282 0.0449681
289 1 0.672888 0.92945 0.0558991
4 1 0.952458 0.923239 0.0423447
5 2 0.937809 0.924254 0.0376208
6 2 0.952175 0.913795 0.0550091
250 1 0.517947 0.541363 0.10385
251 2 0.503688 0.538338 0.109741
286 1 0.136634 0.909666 0.117076
288 2 0.121699 0.914931 0.11884
290 2 0.673074 0.913658 0.0584579
36 2 0.450095 0.0816717 0.155971
34 1 0.443208 0.0813999 0.141489
35 2 0.4301 0.091372 0.142966
38 2 0.550891 0.102768 0.157968
39 2 0.572119 0.0958584 0.169856
37 1 0.566889 0.104541 0.157454
82 1 0.654214 0.345019 0.139677
84 2 0.655761 0.359876 0.1335
164 2 0.417956 0.608826 0.191477
94 1 0.330635 0.695682 0.161554
287 2 0.142722 0.919492 0.106679
83 2 0.665855 0.3441 0.150818
163 1 0.422293 0.619018 0.180368
165 2 0.410208 0.6197 0.170041
96 2 0.32299 0.69222 0.174988
95 2 0.323892 0.709001 0.156694
174 2 0.719399 0.882143 0.192965
172 1 0.71095 0.89291 0.185104
173 2 0.710245 0.887503 0.169965
267 2 0.134286 0.0649753 0.225862
41 2 0.435047 0.225578 0.211423
187 1 0.737216 0.810533 0.201266
188 2 0.736387 0.795246 0.204064
189 2 0.723506 0.815513 0.206237
208 1 0.0804052 0.882205 0.218156
209 2 0.0893289 0.890443 0.228134
210 2 0.0672156 0.880406 0.225595
265 1 0.138396 0.0531428 0.216332
266 2 0.148434 0.0446258 0.225136
134 2 0.121006 0.114917 0.247239
133 1 0.135384 0.118172 0.241576
135 2 0.135855 0.134172 0.241709
42 2 0.41143 0.232255 0.21555
40 1 0.421066 0.219482 0.216868
169 1 0.739568 0.298978 0.267714
170 2 0.753276 0.29482 0.260888
171 2 0.729015 0.287453 0.263691
151 1 0.537013 0.576566 0.21758
152 2 0.543807 0.572187 0.203245
153 2 0.549399 0.577725 0.227745
241 1 0.404523 0.826209 0.283952
242 2 0.398824 0.813259 0.290976
217 1 0.0303688 0.931858 0.244054
218 2 0.0244513 0.941689 0.233666
219 2 0.0177456 0.926056 0.251216
132 2 0.0777795 0.100704 0.289863
130 1 0.0842828 0.11233 0.280709
131 2 0.0712925 0.117758 0.272408
177 2 0.577513 0.218365 0.252054
175 1 0.567259 0.217365 0.263825
176 2 0.572424 0.205368 0.273071
103 1 0.461449 0.303803 0.295815
104 2 0.476161 0.310956 0.297223
105 2 0.452694 0.313351 0.286945
46 1 0.585552 0.390156 0.282366
47 2 0.591269 0.387239 0.267406
48 2 0.58205 0.375617 0.288456
63 2 0.808375 0.560783 0.28999
61 1 0.801975 0.547068 0.284583
62 2 0.814188 0.536966 0.283789
243 2 0.417302 0.820283 0.276574
121 1 0.0260831 0.136269 0.313727
122 2 0.0161398 0.149001 0.315621
123 2 0.0302802 0.132192 0.328945
193 1 0.51796 0.841472 0.319604
194 2 0.506028 0.848746 0.32633
139 1 0.327447 0.880167 0.368881
141 2 0.332704 0.877643 0.353839
195 2 0.531055 0.848642 0.325442
140 2 0.340591 0.879352 0.377733
85 1 0.756913 0.99045 0.322954
87 2 0.764363 0.976588 0.319779
86 2 0.74176 0.987065 0.32236
196 1 0.297394 0.0470966 0.381781
197 2 0.297744 0.0332674 0.374327
198 2 0.306201 0.0566784 0.373383
211 1 0.0741165 0.240218 0.397352
212 2 0.0680259 0.253806 0.39227
213 2 0.0864103 0.237731 0.387809
19 1 0.590197 0.494659 0.364948
20 2 0.602114 0.497747 0.354116
7 1 0.917915 0.875118 0.367646
9 2 0.917209 0.886547 0.356137
8 2 0.910774 0.880535 0.380749
49 1 0.909129 0.161004 0.422067
50 2 0.897885 0.167272 0.412391
51 2 0.907409 0.168313 0.436488
264 2 0.571196 0.227327 0.433186
59 2 0.20505 0.334486 0.425845
21 2 0.591198 0.506483 0.375543
148 1 0.874799 0.631107 0.40575
150 2 0.875074 0.628985 0.42146
238 1 0.472011 0.809797 0.425029
240 2 0.470956 0.816786 0.439228
239 2 0.472598 0.793684 0.428405
72 2 0.05539 0.0247895 0.442597
70 1 0.0551921 0.0207247 0.427657
71 2 0.0692695 0.0234278 0.422147
262 1 0.586694 0.22459 0.432535
263 2 0.588042 0.208684 0.435404
60 2 0.199688 0.312892 0.41234
271 1 0.408621 0.301721 0.44508
58 1 0.204169 0.317831 0.426717
272 2 0.422756 0.299102 0.439359
273 2 0.411093 0.30713 0.460058
149 2 0.886043 0.62085 0.400103
183 2 0.868401 0.175185 0.460662
181 1 0.884058 0.18045 0.461003
182 2 0.884234 0.188442 0.474782
204 2 0.161113 0.708471 0.474207
202 1 0.156089 0.694566 0.479979
203 2 0.15446 0.697081 0.495743
167 2 0.548375 0.87583 0.479666
166 1 0.547106 0.885934 0.466939
168 2 0.554781 0.899232 0.471617
137 2 0.719672 0.327536 0.494863
136 1 0.715752 0.315419 0.504462
138 2 0.69925 0.314634 0.503532
221 2 0.79114 0.39008 0.514049
220 1 0.800536 0.380835 0.52311
222 2 0.805396 0.390485 0.534985
127 1 0.949924 0.618032 0.566034
128 2 0.959938 0.620354 0.553497
129 2 0.939126 0.629462 0.564357
11 2 0.133305 0.709128 0.571098
178 1 0.742839 0.0732113 0.609908
180 2 0.727763 0.0713538 0.613942
225 2 0.95934 0.594933 0.60979
10 1 0.124059 0.697052 0.574263
12 2 0.129747 0.690281 0.586723
260 2 0.777529 0.696693 0.643186
179 2 0.749604 0.0804352 0.622376
64 1 0.355267 0.309846 0.626339
65 2 0.339441 0.308852 0.627219
66 2 0.360798 0.299867 0.637022
31 1 0.94857 0.327128 0.618335
32 2 0.935538 0.328853 0.627747
33 2 0.956042 0.314619 0.624249
223 1 0.949372 0.605814 0.605092
224 2 0.951594 0.6074 0.589176
259 1 0.769524 0.70544 0.632402
261 2 0.763613 0.694812 0.622222
28 1 0.564848 0.190148 0.681817
29 2 0.573366 0.178134 0.687502
30 2 0.57485 0.198004 0.672361
205 1 0.164141 0.428313 0.680937
206 2 0.15792 0.439043 0.691504
207 2 0.155585 0.415075 0.684799
73 1 0.661766 0.447005 0.679305
74 2 0.677466 0.444763 0.682385
75 2 0.659562 0.462578 0.683683
55 1 0.49613 0.690899 0.686904
56 2 0.49882 0.694733 0.671814
97 1 0.0230602 0.896802 0.649643
98 2 0.0325363 0.908092 0.656033
99 2 0.0173251 0.889187 0.661913
43 1 0.571172 0.0809741 0.719217
45 2 0.574097 0.0966901 0.719411
22 1 0.601519 0.301115 0.70497
23 2 0.613959 0.294999 0.712603
67 1 0.150125 0.453009 0.710345
68 2 0.134519 0.457382 0.711449
115 1 0.672522 0.484455 0.708495
116 2 0.685107 0.488926 0.716057
244 1 0.21511 0.536564 0.676641
245 2 0.200273 0.532018 0.673547
246 2 0.217177 0.533326 0.691835
18 2 0.307823 0.518789 0.743777
16 1 0.311401 0.518295 0.728087
17 2 0.308731 0.532961 0.722994
117 2 0.663358 0.477881 0.720258
277 1 0.0307958 0.70266 0.726927
278 2 0.0405757 0.709678 0.738427
57 2 0.508355 0.697111 0.694415
91 1 0.445755 0.785861 0.731364
93 2 0.44163 0.774144 0.721037
92 2 0.437532 0.782534 0.745017
147 2 0.940046 0.00292673 0.775629
146 2 0.942233 0.025932 0.78543
145 1 0.932063 0.014343 0.7827
258 2 0.226195 0.0627413 0.758927
256 1 0.213111 0.0712284 0.760956
257 2 0.203197 0.0615089 0.767897
44 2 0.556619 0.0793029 0.724151
114 2 0.90992 0.225122 0.76281
113 2 0.918995 0.228246 0.7866
24 2 0.597009 0.289829 0.694829
69 2 0.157359 0.4643 0.719169
235 1 0.408745 0.441722 0.753194
236 2 0.411386 0.450402 0.766464
237 2 0.423149 0.435658 0.750444
285 2 0.342837 0.492868 0.7486
284 2 0.336334 0.469935 0.744886
199 1 0.556507 0.695787 0.746335
201 2 0.547383 0.683681 0.75246
200 2 0.565477 0.701005 0.758807
279 2 0.0409839 0.699382 0.71442
112 1 0.907005 0.233064 0.776281
295 1 0.415611 0.450444 0.793362
297 2 0.407815 0.438781 0.801366
296 2 0.407024 0.463166 0.797539
283 1 0.34013 0.479595 0.756275
154 1 0.559766 0.630313 0.801832
155 2 0.55077 0.616988 0.803331
298 1 0.544701 0.945663 0.783729
299 2 0.544025 0.947569 0.799663
300 2 0.529223 0.942562 0.77965
216 2 0.865888 0.341421 0.872423
156 2 0.561412 0.632438 0.786144
120 2 0.459414 0.721307 0.863249
292 1 0.325492 0.731352 0.83292
293 2 0.337269 0.740904 0.837495
294 2 0.312713 0.739129 0.836743
247 1 0.0726425 0.0499075 0.83885
249 2 0.0698029 0.0424628 0.825565
248 2 0.0611738 0.0604677 0.840223
102 2 0.871824 0.191969 0.882261
214 1 0.855691 0.329947 0.867908
215 2 0.842385 0.332697 0.876937
106 1 0.810087 0.645806 0.867287
119 2 0.470685 0.71939 0.84043
118 1 0.457603 0.725666 0.848045
161 2 0.857416 0.778398 0.902167
100 1 0.885068 0.199638 0.884229
101 2 0.880783 0.214696 0.885151
190 1 0.998897 0.491977 0.905784
192 2 0.00600319 0.493434 0.920163
191 2 0.989312 0.504884 0.904668
107 2 0.820095 0.648443 0.85541
108 2 0.818799 0.648498 0.880411
81 2 0.786975 0.732369 0.940779
160 1 0.848912 0.780728 0.914998
162 2 0.855655 0.793216 0.922118
109 1 0.529866 0.637353 0.923436
110 2 0.527917 0.623693 0.931592
111 2 0.545113 0.640864 0.925163
80 2 0.779659 0.75553 0.936915
79 1 0.774492 0.741579 0.941924
229 1 0.641758 0.0783031 0.999118
231 2 0.629572 0.0708355 0.992797
185 2 0.675434 0.0664891 0.994907
184 1 0.690908 0.0630849 0.99273
186 2 0.697606 0.0674352 0.00612027
142 1 0.271963 0.133125 0.990069
144 2 0.258642 0.12694 0.996383
143 2 0.272977 0.148503 0.994812
15 2 0.24263 0.181175 0.0048333
14 2 0.258837 0.196607 0.99292
1 1 0.897625 0.337457 0.996939
2 2 0.907108 0.340391 0.984411
3 2 0.907452 0.340516 0.00934443
268 1 0.70535 0.766391 0.964254
270 2 0.719306 0.766108 0.955823
269 2 0.70997 0.764483 0.979755